  title = "zhanghui"
  variables  = "x","y","u","v","w","Press", "Temp","Psi","TK","TE","Gamt"
  zone t =  "zone 1" , i= 42  , j= 42  , f= block
    0.00000        0.00000        0.00000        0.00000        0.00000    
    0.00000        0.00000        0.00000        0.00000        0.00000    
    0.00000        0.00000        0.00000        0.00000        0.00000    
    0.00000        0.00000        0.00000        0.00000        0.00000    
    0.00000        0.00000        0.00000        0.00000        0.00000    
    0.00000        0.00000        0.00000        0.00000        0.00000    
    0.00000        0.00000        0.00000        0.00000        0.00000    
    0.00000        0.00000        0.00000        0.00000        0.00000    
    0.00000        0.00000       0.480196E-02   0.480196E-02   0.482549E-02
   0.485793E-02   0.486980E-02   0.487188E-02   0.486722E-02   0.485733E-02
   0.484356E-02   0.482734E-02   0.481043E-02   0.479504E-02   0.478398E-02
   0.478085E-02   0.479017E-02   0.481749E-02   0.486905E-02   0.495038E-02
   0.506182E-02   0.518757E-02   0.528098E-02   0.528511E-02   0.520091E-02
   0.508604E-02   0.498631E-02   0.491621E-02   0.487426E-02   0.485418E-02
   0.484926E-02   0.485380E-02   0.486328E-02   0.487429E-02   0.488430E-02
   0.489140E-02   0.489418E-02   0.489152E-02   0.488247E-02   0.486613E-02
   0.484155E-02   0.480751E-02   0.476323E-02   0.474273E-02   0.150299E-01
   0.150299E-01   0.150662E-01   0.151192E-01   0.151401E-01   0.151388E-01
   0.151195E-01   0.150855E-01   0.150401E-01   0.149874E-01   0.149326E-01
   0.148822E-01   0.148446E-01   0.148309E-01   0.148547E-01   0.149328E-01
   0.150843E-01   0.153258E-01   0.156582E-01   0.160334E-01   0.163119E-01
   0.163246E-01   0.160745E-01   0.157330E-01   0.154370E-01   0.152304E-01
   0.151088E-01   0.150531E-01   0.150429E-01   0.150610E-01   0.150936E-01
   0.151303E-01   0.151633E-01   0.151871E-01   0.151972E-01   0.151903E-01
   0.151636E-01   0.151145E-01   0.150402E-01   0.149377E-01   0.148056E-01
   0.147437E-01   0.265748E-01   0.265748E-01   0.265888E-01   0.266082E-01
   0.266074E-01   0.265826E-01   0.265343E-01   0.264649E-01   0.263784E-01
   0.262808E-01   0.261799E-01   0.260862E-01   0.260137E-01   0.259805E-01
   0.260096E-01   0.261294E-01   0.263718E-01   0.267645E-01   0.273088E-01
   0.279245E-01   0.283811E-01   0.284029E-01   0.279952E-01   0.274382E-01
   0.269574E-01   0.266255E-01   0.264353E-01   0.263546E-01   0.263490E-01
   0.263894E-01   0.264527E-01   0.265214E-01   0.265828E-01   0.266272E-01
   0.266475E-01   0.266383E-01   0.265951E-01   0.265139E-01   0.263911E-01
   0.262228E-01   0.260082E-01   0.259035E-01   0.396326E-01   0.396326E-01
   0.396271E-01   0.396062E-01   0.395632E-01   0.394953E-01   0.394017E-01
   0.392841E-01   0.391465E-01   0.389956E-01   0.388414E-01   0.386975E-01
   0.385826E-01   0.385213E-01   0.385453E-01   0.386941E-01   0.390120E-01
   0.395380E-01   0.402738E-01   0.411088E-01   0.417288E-01   0.417600E-01
   0.412106E-01   0.404608E-01   0.398178E-01   0.393807E-01   0.391386E-01
   0.390462E-01   0.390556E-01   0.391260E-01   0.392257E-01   0.393306E-01
   0.394232E-01   0.394905E-01   0.395229E-01   0.395132E-01   0.394560E-01
   0.393465E-01   0.391809E-01   0.389559E-01   0.386713E-01   0.385219E-01
   0.545238E-01   0.545238E-01   0.545056E-01   0.544524E-01   0.543662E-01
   0.542488E-01   0.541020E-01   0.539286E-01   0.537337E-01   0.535251E-01
   0.533140E-01   0.531165E-01   0.529547E-01   0.528584E-01   0.528665E-01
   0.530280E-01   0.533986E-01   0.540281E-01   0.549197E-01   0.559376E-01
   0.566953E-01   0.567360E-01   0.560709E-01   0.551659E-01   0.543972E-01
   0.538852E-01   0.536138E-01   0.535252E-01   0.535590E-01   0.536647E-01
   0.538029E-01   0.539447E-01   0.540685E-01   0.541590E-01   0.542049E-01
   0.541978E-01   0.541315E-01   0.540016E-01   0.538043E-01   0.535369E-01
   0.532004E-01   0.530059E-01   0.717227E-01   0.717227E-01   0.716968E-01
   0.716217E-01   0.715020E-01   0.713425E-01   0.711479E-01   0.709234E-01
   0.706758E-01   0.704143E-01   0.701514E-01   0.699047E-01   0.696984E-01
   0.695651E-01   0.695486E-01   0.697044E-01   0.700972E-01   0.707860E-01
   0.717778E-01   0.729201E-01   0.737745E-01   0.738242E-01   0.730834E-01
   0.720804E-01   0.712399E-01   0.706946E-01   0.704216E-01   0.703523E-01
   0.704168E-01   0.705577E-01   0.707313E-01   0.709054E-01   0.710567E-01
   0.711685E-01   0.712287E-01   0.712287E-01   0.711619E-01   0.710239E-01
   0.708113E-01   0.705218E-01   0.701572E-01   0.699220E-01   0.919122E-01
   0.919122E-01   0.918827E-01   0.917964E-01   0.916588E-01   0.914756E-01
   0.912530E-01   0.909980E-01   0.907188E-01   0.904254E-01   0.901314E-01
   0.898544E-01   0.896188E-01   0.894575E-01   0.894151E-01   0.895490E-01
   0.899278E-01   0.906166E-01   0.916278E-01   0.928062E-01   0.936937E-01
   0.937505E-01   0.929933E-01   0.919747E-01   0.911360E-01   0.906090E-01
   0.903638E-01   0.903251E-01   0.904194E-01   0.905874E-01   0.907848E-01
   0.909798E-01   0.911494E-01   0.912773E-01   0.913518E-01   0.913642E-01
   0.913083E-01   0.911796E-01   0.909744E-01   0.906905E-01   0.903297E-01
   0.900696E-01   0.116034       0.116034       0.116006       0.115922    
   0.115788       0.115610       0.115394       0.115146       0.114877    
   0.114594       0.114311       0.114044       0.113815       0.113653    
   0.113599       0.113705       0.114035       0.114654       0.115578    
   0.116667       0.117494       0.117553       0.116862       0.115939    
   0.115193       0.114740       0.114546       0.114539       0.114649    
   0.114824       0.115023       0.115218       0.115389       0.115523    
   0.115608       0.115638       0.115607       0.115510       0.115343    
   0.115104       0.114794       0.114546       0.145147       0.145147    
   0.145125       0.145061       0.144961       0.144827       0.144664    
   0.144480       0.144279       0.144070       0.143862       0.143668    
   0.143504       0.143393       0.143363       0.143455       0.143716    
   0.144196       0.144912       0.145756       0.146399       0.146451    
   0.145929       0.145233       0.144675       0.144341       0.144205    
   0.144211       0.144308       0.144454       0.144621       0.144787    
   0.144936       0.145059       0.145149       0.145200       0.145208    
   0.145170       0.145084       0.144944       0.144753       0.144592    
   0.179425       0.179425       0.179417       0.179393       0.179355    
   0.179305       0.179245       0.179178       0.179107       0.179036    
   0.178970       0.178916       0.178883       0.178881       0.178924    
   0.179031       0.179223       0.179521       0.179927       0.180380    
   0.180715       0.180749       0.180494       0.180141       0.179841    
   0.179645       0.179549       0.179532       0.179571       0.179649    
   0.179748       0.179856       0.179965       0.180068       0.180160    
   0.180240       0.180307       0.180360       0.180399       0.180424    
   0.180435       0.180456       0.216200       0.216200       0.216208    
   0.216230       0.216264       0.216311       0.216369       0.216437    
   0.216516       0.216606       0.216708       0.216821       0.216945    
   0.217080       0.217222       0.217366       0.217501       0.217611    
   0.217676       0.217683       0.217659       0.217671       0.217724    
   0.217755       0.217727       0.217654       0.217565       0.217485    
   0.217431       0.217411       0.217426       0.217476       0.217554    
   0.217657       0.217779       0.217918       0.218074       0.218250    
   0.218450       0.218677       0.218935       0.219187       0.250762    
   0.250762       0.250780       0.250833       0.250917       0.251031    
   0.251172       0.251338       0.251527       0.251737       0.251964    
   0.252205       0.252451       0.252694       0.252915       0.253090    
   0.253178       0.253133       0.252913       0.252545       0.252224    
   0.252222       0.252544       0.252906       0.253108       0.253126    
   0.253020       0.252858       0.252695       0.252568       0.252503    
   0.252511       0.252594       0.252747       0.252961       0.253225    
   0.253530       0.253873       0.254255       0.254685       0.255170    
   0.255609       0.280296       0.280296       0.280317       0.280377    
   0.280476       0.280611       0.280781       0.280983       0.281214    
   0.281473       0.281755       0.282053       0.282357       0.282652    
   0.282911       0.283094       0.283145       0.282994       0.282589    
   0.281989       0.281487       0.281488       0.281990       0.282580    
   0.282946       0.283033       0.282911       0.282675       0.282408    
   0.282175       0.282024       0.281987       0.282082       0.282312    
   0.282670       0.283136       0.283681       0.284276       0.284903    
   0.285558       0.286249       0.286797       0.304837       0.304837    
   0.304855       0.304910       0.305000       0.305125       0.305282    
   0.305472       0.305693       0.305944       0.306222       0.306522    
   0.306833       0.307136       0.307400       0.307577       0.307602    
   0.307396       0.306907       0.306208       0.305638       0.305648    
   0.306240       0.306949       0.307416       0.307560       0.307443    
   0.307166       0.306822       0.306492       0.306241       0.306121    
   0.306175       0.306429       0.306898       0.307577       0.308434    
   0.309411       0.310437       0.311453       0.312441       0.313076    
   0.325422       0.325422       0.325437       0.325479       0.325547    
   0.325641       0.325760       0.325907       0.326085       0.326294    
   0.326536       0.326807       0.327095       0.327382       0.327634    
   0.327801       0.327814       0.327597       0.327102       0.326406    
   0.325846       0.325867       0.326471       0.327206       0.327714    
   0.327903       0.327819       0.327548       0.327178       0.326786    
   0.326442       0.326210       0.326149       0.326315       0.326760    
   0.327524       0.328625       0.330036       0.331661       0.333335    
   0.334914       0.335731       0.343064       0.343064       0.343071    
   0.343089       0.343118       0.343161       0.343221       0.343306    
   0.343423       0.343577       0.343769       0.343998       0.344251    
   0.344510       0.344740       0.344894       0.344907       0.344710    
   0.344263       0.343639       0.343141       0.343169       0.343727    
   0.344412       0.344906       0.345119       0.345084       0.344866    
   0.344531       0.344143       0.343759       0.343436       0.343235    
   0.343226       0.343487       0.344108       0.345188       0.346813    
   0.349013       0.351645       0.354350       0.355653       0.358482    
   0.358482       0.358474       0.358454       0.358427       0.358404    
   0.358397       0.358417       0.358472       0.358571       0.358714    
   0.358897       0.359110       0.359333       0.359534       0.359671    
   0.359688       0.359531       0.359166       0.358656       0.358252    
   0.358282       0.358751       0.359331       0.359762       0.359973    
   0.359985       0.359844       0.359597       0.359283       0.358939    
   0.358602       0.358318       0.358144       0.358157       0.358461    
   0.359202       0.360575       0.362833       0.366186       0.370480    
   0.372935       0.372120       0.372120       0.372095       0.372029    
   0.371945       0.371863       0.371801       0.371772       0.371782    
   0.371838       0.371938       0.372077       0.372244       0.372421    
   0.372583       0.372694       0.372716       0.372605       0.372342    
   0.371971       0.371677       0.371705       0.372057       0.372492    
   0.372824       0.373002       0.373043       0.372978       0.372837    
   0.372642       0.372409       0.372154       0.371896       0.371665    
   0.371509       0.371505       0.371781       0.372540       0.374131    
   0.377166       0.382531       0.387015       0.384243       0.384243    
   0.384202       0.384107       0.383997       0.383896       0.383819    
   0.383773       0.383764       0.383791       0.383853       0.383944    
   0.384056       0.384174       0.384283       0.384359       0.384378    
   0.384316       0.384160       0.383938       0.383763       0.383783    
   0.384000       0.384268       0.384475       0.384595       0.384638    
   0.384624       0.384571       0.384491       0.384389       0.384267    
   0.384128       0.383974       0.383819       0.383692       0.383660    
   0.383844       0.384491       0.386150       0.390712       0.397597    
   0.394974       0.394974       0.394951       0.394900       0.394846    
   0.394798       0.394762       0.394740       0.394734       0.394742    
   0.394764       0.394797       0.394837       0.394879       0.394918    
   0.394946       0.394954       0.394935       0.394884       0.394811    
   0.394753       0.394760       0.394834       0.394924       0.394994    
   0.395036       0.395055       0.395057       0.395048       0.395032    
   0.395012       0.394987       0.394954       0.394912       0.394858    
   0.394795       0.394739       0.394722       0.394821       0.395215    
   0.396989       0.405257       0.406834       0.406834       0.406860    
   0.406919       0.406983       0.407038       0.407076       0.407094    
   0.407090       0.407065       0.407019       0.406956       0.406878    
   0.406792       0.406705       0.406627       0.406566       0.406531    
   0.406525       0.406537       0.406534       0.406479       0.406383    
   0.406286       0.406216       0.406180       0.406170       0.406178    
   0.406198       0.406227       0.406264       0.406314       0.406386    
   0.406491       0.406645       0.406865       0.407164       0.407554    
   0.408044       0.408647       0.409450       0.416011       0.421678    
   0.421678       0.421718       0.421812       0.421919       0.422010    
   0.422069       0.422082       0.422045       0.421954       0.421809    
   0.421616       0.421383       0.421125       0.420860       0.420613    
   0.420411       0.420281       0.420232       0.420235       0.420197    
   0.420024       0.419743       0.419473       0.419290       0.419205    
   0.419200       0.419249       0.419336       0.419451       0.419595    
   0.419779       0.420021       0.420346       0.420784       0.421362    
   0.422103       0.423024       0.424139       0.425478       0.427170    
   0.430605       0.438889       0.438889       0.438901       0.438932    
   0.438964       0.438978       0.438957       0.438887       0.438758    
   0.438562       0.438297       0.437964       0.437573       0.437138    
   0.436684       0.436245       0.435863       0.435578       0.435413    
   0.435330       0.435198       0.434884       0.434441       0.434047    
   0.433811       0.433740       0.433801       0.433956       0.434178    
   0.434451       0.434774       0.435156       0.435612       0.436158    
   0.436812       0.437584       0.438480       0.439500       0.440647    
   0.441930       0.443389       0.444912       0.458555       0.458555    
   0.458540       0.458495       0.458419       0.458307       0.458151    
   0.457944       0.457675       0.457338       0.456927       0.456440    
   0.455881       0.455262       0.454606       0.453948       0.453337    
   0.452827       0.452455       0.452189       0.451886       0.451406    
   0.450831       0.450382       0.450176       0.450207       0.450424    
   0.450771       0.451210       0.451717       0.452280       0.452897    
   0.453566       0.454287       0.455056       0.455864       0.456701    
   0.457550       0.458394       0.459212       0.459979       0.460439    
   0.480842       0.480842       0.480807       0.480706       0.480544    
   0.480324       0.480046       0.479706       0.479298       0.478818    
   0.478258       0.477614       0.476885       0.476077       0.475205    
   0.474301       0.473411       0.472596       0.471910       0.471343    
   0.470776       0.470098       0.469431       0.469016       0.468950    
   0.469193       0.469665       0.470291       0.471015       0.471797    
   0.472613       0.473442       0.474270       0.475082       0.475861    
   0.476591       0.477255       0.477832       0.478300       0.478633    
   0.478797       0.478769       0.506069       0.506069       0.506031    
   0.505919       0.505735       0.505479       0.505150       0.504744    
   0.504256       0.503679       0.503008       0.502235       0.501354    
   0.500366       0.499277       0.498107       0.496895       0.495698    
   0.494583       0.493582       0.492641       0.491729       0.491022    
   0.490747       0.490941       0.491507       0.492320       0.493280    
   0.494310       0.495359       0.496389       0.497373       0.498289    
   0.499121       0.499852       0.500469       0.500960       0.501313    
   0.501515       0.501557       0.501430       0.501259       0.535340    
   0.535340       0.535312       0.535222       0.535064       0.534830    
   0.534513       0.534103       0.533594       0.532976       0.532240    
   0.531376       0.530375       0.529229       0.527936       0.526501    
   0.524945       0.523312       0.521675       0.520112       0.518683    
   0.517498       0.516801       0.516767       0.517323       0.518282    
   0.519473       0.520766       0.522077       0.523347       0.524540    
   0.525630       0.526600       0.527438       0.528138       0.528694    
   0.529105       0.529369       0.529490       0.529470       0.529320    
   0.529163       0.570755       0.570755       0.570730       0.570649    
   0.570498       0.570265       0.569940       0.569512       0.568971    
   0.568308       0.567511       0.566568       0.565465       0.564188    
   0.562720       0.561051       0.559177       0.557116       0.554929    
   0.552737       0.550740       0.549244       0.548582       0.548832    
   0.549770       0.551110       0.552634       0.554203       0.555733    
   0.557172       0.558491       0.559673       0.560711       0.561601    
   0.562343       0.562940       0.563398       0.563721       0.563916    
   0.563993       0.563958       0.563884       0.614539       0.614539    
   0.614488       0.614337       0.614088       0.613743       0.613301    
   0.612759       0.612113       0.611354       0.610472       0.609451    
   0.608273       0.606915       0.605349       0.603544       0.601471    
   0.599112       0.596496       0.593759       0.591223       0.589407    
   0.588736       0.589183       0.590376       0.591951       0.593668    
   0.595391       0.597045       0.598590       0.600006       0.601285    
   0.602423       0.603423       0.604288       0.605024       0.605636    
   0.606129       0.606510       0.606783       0.606953       0.607041    
   0.669090       0.668736       0.668022       0.667296       0.666554    
   0.665792       0.665005       0.664185       0.663321       0.662402    
   0.661410       0.660327       0.659127       0.657779       0.656244    
   0.654476       0.652423       0.650033       0.647295       0.644314    
   0.641462       0.639390       0.638602       0.639014       0.640185    
   0.641726       0.643405       0.645096       0.646735       0.648288    
   0.649740       0.651085       0.652322       0.653453       0.654480    
   0.655408       0.656239       0.656977       0.657626       0.658188    
   0.658666       0.659041       0.728136       0.727414       0.726008    
   0.724672       0.723400       0.722182       0.721009       0.719869    
   0.718750       0.717639       0.716518       0.715368       0.714162    
   0.712869       0.711448       0.709848       0.708008       0.705860    
   0.703356       0.700546       0.697747       0.695608       0.694657    
   0.694826       0.695711       0.696964       0.698384       0.699859    
   0.701331       0.702772       0.704165       0.705504       0.706784    
   0.708005       0.709168       0.710275       0.711326       0.712323    
   0.713268       0.714162       0.715006       0.715741       0.782118    
   0.781327       0.779759       0.778220       0.776717       0.775255    
   0.773834       0.772456       0.771117       0.769813       0.768536    
   0.767275       0.766013       0.764729       0.763394       0.761970    
   0.760405       0.758637       0.756602       0.754293       0.751913    
   0.749996       0.749021       0.748968       0.749523       0.750421    
   0.751504       0.752684       0.753913       0.755163       0.756420    
   0.757675       0.758923       0.760160       0.761387       0.762601    
   0.763802       0.764989       0.766164       0.767325       0.768471    
   0.769490       0.827911       0.827045       0.825326       0.823634    
   0.821967       0.820326       0.818714       0.817135       0.815593    
   0.814092       0.812633       0.811218       0.809845       0.808511    
   0.807209       0.805926       0.804640       0.803307       0.801865    
   0.800253       0.798550       0.797128       0.796372       0.796285    
   0.796650       0.797288       0.798094       0.799007       0.799996    
   0.801040       0.802127       0.803250       0.804405       0.805586    
   0.806792       0.808020       0.809268       0.810535       0.811817    
   0.813113       0.814420       0.815565       0.865966       0.865059    
   0.863232       0.861385       0.859523       0.857658       0.855799    
   0.853959       0.852154       0.850398       0.848707       0.847098    
   0.845586       0.844188       0.842922       0.841807       0.840847    
   0.840022       0.839260       0.838444       0.837535       0.836753    
   0.836376       0.836418       0.836736       0.837229       0.837841    
   0.838545       0.839324       0.840170       0.841077       0.842040    
   0.843057       0.844123       0.845237       0.846396       0.847598    
   0.848838       0.850115       0.851425       0.852764       0.853898    
   0.898969       0.897875       0.895663       0.893410       0.891136    
   0.888859       0.886598       0.884377       0.882221       0.880160    
   0.878225       0.876447       0.874857       0.873490       0.872381    
   0.871567       0.871068       0.870858       0.870835       0.870823    
   0.870686       0.870529       0.870552       0.870773       0.871112    
   0.871525       0.872000       0.872535       0.873133       0.873793    
   0.874517       0.875303       0.876152       0.877062       0.878032    
   0.879059       0.880142       0.881279       0.882466       0.883700    
   0.884978       0.886011       0.925451       0.924173       0.921614    
   0.919053       0.916496       0.913955       0.911452       0.909012    
   0.906673       0.904477       0.902475       0.900721       0.899268    
   0.898166       0.897460       0.897176       0.897312       0.897803    
   0.898502       0.899185       0.899666       0.899990       0.900319    
   0.900682       0.901042       0.901396       0.901763       0.902159    
   0.902598       0.903088       0.903635       0.904242       0.904910    
   0.905641       0.906434       0.907288       0.908204       0.909181    
   0.910216       0.911309       0.912456       0.913337       0.946965    
   0.945609       0.942894       0.940175       0.937469       0.934795    
   0.932180       0.929661       0.927282       0.925102       0.923193    
   0.921640       0.920533       0.919948       0.919915       0.920382    
   0.921252       0.922398       0.923645       0.924771       0.925606    
   0.926190       0.926670       0.927085       0.927430       0.927724    
   0.927998       0.928278       0.928583       0.928926       0.929314    
   0.929751       0.930242       0.930788       0.931390       0.932051    
   0.932769       0.933547       0.934385       0.935283       0.936243    
   0.936940       0.964583       0.963215       0.960480       0.957765    
   0.955099       0.952510       0.950024       0.947674       0.945504    
   0.943575       0.941973       0.940816       0.940252       0.940435    
   0.941341       0.942682       0.944177       0.945691       0.947118    
   0.948318       0.949190       0.949794       0.950259       0.950631    
   0.950915       0.951136       0.951327       0.951512       0.951709    
   0.951930       0.952182       0.952470       0.952799       0.953169    
   0.953583       0.954042       0.954549       0.955105       0.955714    
   0.956376       0.957097       0.957594       0.978053       0.976828    
   0.974463       0.972254       0.970183       0.968240       0.966426    
   0.964751       0.963243       0.961949       0.960951       0.960382    
   0.960458       0.961509       0.963403       0.965341       0.966901    
   0.968193       0.969291       0.970166       0.970787       0.971212    
   0.971534       0.971784       0.971968       0.972106       0.972219    
   0.972324       0.972434       0.972557       0.972698       0.972860    
   0.973045       0.973256       0.973493       0.973759       0.974055    
   0.974382       0.974744       0.975144       0.975585       0.975878    
   0.992213       0.991649       0.990595       0.989669       0.988838    
   0.988083       0.987395       0.986774       0.986227       0.985772    
   0.985448       0.985319       0.985508       0.986240       0.987411    
   0.988453       0.989140       0.989637       0.990034       0.990343    
   0.990559       0.990708       0.990820       0.990906       0.990970    
   0.991016       0.991054       0.991088       0.991124       0.991163    
   0.991208       0.991260       0.991320       0.991388       0.991464    
   0.991550       0.991646       0.991753       0.991871       0.992003    
   0.992150       0.992245        1.00000        1.00000        1.00000    
    1.00000        1.00000        1.00000        1.00000        1.00000    
    1.00000        1.00000        1.00000        1.00000        1.00000    
    1.00000        1.00000        1.00000        1.00000        1.00000    
    1.00000        1.00000        1.00000        1.00000        1.00000    
    1.00000        1.00000        1.00000        1.00000        1.00000    
    1.00000        1.00000        1.00000        1.00000        1.00000    
    1.00000        1.00000        1.00000        1.00000        1.00000    
    1.00000        1.00000        1.00000        1.00000    
    0.00000       0.316870E-02   0.945208E-02   0.158262E-01   0.225122E-01
   0.295589E-01   0.370225E-01   0.449687E-01   0.534757E-01   0.626379E-01
   0.725708E-01   0.834173E-01   0.953580E-01   0.108624       0.123518    
   0.140446       0.159962       0.182842       0.210140       0.243047    
   0.281755       0.323123       0.361676       0.394313       0.421268    
   0.443763       0.462877       0.479400       0.493901       0.506794    
   0.518387       0.528913       0.538556       0.547457       0.555731    
   0.563472       0.570756       0.577647       0.584198       0.590457    
   0.596760       0.608357       0.185599E-03   0.326150E-02   0.945208E-02
   0.158262E-01   0.225122E-01   0.295589E-01   0.370225E-01   0.449687E-01
   0.534757E-01   0.626379E-01   0.725708E-01   0.834173E-01   0.953580E-01
   0.108624       0.123518       0.140446       0.159962       0.182842    
   0.210140       0.243047       0.281755       0.323123       0.361676    
   0.394313       0.421268       0.443763       0.462877       0.479400    
   0.493901       0.506794       0.518387       0.528913       0.538556    
   0.547457       0.555731       0.563472       0.570756       0.577647    
   0.584198       0.590457       0.596760       0.608357       0.593604E-03
   0.355083E-02   0.960384E-02   0.159486E-01   0.226184E-01   0.296556E-01
   0.371134E-01   0.450556E-01   0.535591E-01   0.627172E-01   0.726446E-01
   0.834838E-01   0.954150E-01   0.108669       0.123549       0.140461    
   0.159961       0.182826       0.210115       0.243027       0.281755    
   0.323153       0.361728       0.394370       0.421319       0.443801    
   0.462901       0.479412       0.493903       0.506788       0.518375    
   0.528898       0.538540       0.547441       0.555718       0.563462    
   0.570749       0.577643       0.584199       0.590460       0.596762    
   0.608352       0.108172E-02   0.400723E-02   0.100022E-01   0.163029E-01
   0.229433E-01   0.299616E-01   0.374067E-01   0.453391E-01   0.538330E-01
   0.629793E-01   0.728908E-01   0.837084E-01   0.956112E-01   0.108830    
   0.123666       0.140529       0.159978       0.182797       0.210059    
   0.242979       0.281764       0.323243       0.361876       0.394531    
   0.421457       0.443902       0.462961       0.479434       0.493894    
   0.506757       0.518329       0.528844       0.538484       0.547389    
   0.555673       0.563427       0.570726       0.577632       0.584197    
   0.590466       0.596766       0.608341       0.166607E-02   0.459090E-02
   0.105811E-01   0.168716E-01   0.235003E-01   0.305086E-01   0.379450E-01
   0.458684E-01   0.543505E-01   0.634800E-01   0.733669E-01   0.841499E-01
   0.960058E-01   0.109164       0.123928       0.140706       0.160066    
   0.182803       0.210011       0.242934       0.281795       0.323387    
   0.362099       0.394764       0.421648       0.444028       0.463018    
   0.479430       0.493842       0.506669       0.518221       0.528728    