 title="zhangui"
  variables ="x","y","u","v","w","t","st","k","e","vis"
 zone t=zone 1, i= 62, j= 42, f= block
 0.00000E+00  0.00000E+00  0.00000E+00  0.00000E+00  0.00000E+00  0.00000E+00
 0.00000E+00  0.00000E+00  0.00000E+00  0.00000E+00  0.00000E+00  0.00000E+00
 0.00000E+00  0.00000E+00  0.00000E+00  0.00000E+00  0.00000E+00  0.00000E+00
 0.00000E+00  0.00000E+00  0.00000E+00  0.00000E+00  0.00000E+00  0.00000E+00
 0.00000E+00  0.00000E+00  0.00000E+00  0.00000E+00  0.00000E+00  0.00000E+00
 0.00000E+00  0.00000E+00  0.00000E+00  0.00000E+00  0.00000E+00  0.00000E+00
 0.00000E+00  0.00000E+00  0.00000E+00  0.00000E+00  0.00000E+00  0.00000E+00
 0.00000E+00  0.00000E+00  0.00000E+00  0.00000E+00  0.00000E+00  0.00000E+00
 0.00000E+00  0.00000E+00  0.00000E+00  0.00000E+00  0.00000E+00  0.00000E+00
 0.00000E+00  0.00000E+00  0.00000E+00  0.00000E+00  0.00000E+00  0.00000E+00
 0.00000E+00  0.00000E+00  4.69968E-03  4.69968E-03  4.72324E-03  4.75672E-03
 4.77154E-03  4.77848E-03  4.78083E-03  4.78058E-03  4.77969E-03  4.78035E-03
 4.78521E-03  4.79746E-03  4.82098E-03  4.86039E-03  4.92116E-03  5.00938E-03
 5.13115E-03  5.29070E-03  5.48538E-03  5.69453E-03  5.86621E-03  5.94007E-03
 5.91376E-03  5.84058E-03  5.76347E-03  5.69606E-03  5.63719E-03  5.58156E-03
 5.52377E-03  5.45929E-03  5.38441E-03  5.29586E-03  5.19052E-03  5.06489E-03
 4.91472E-03  4.73425E-03  4.51508E-03  4.24399E-03  3.89796E-03  3.43093E-03
 2.70977E-03  2.51500E-03  2.95081E-03  3.26227E-03  3.50261E-03  3.71557E-03
 3.91752E-03  4.10903E-03  4.28589E-03  4.44461E-03  4.58327E-03  4.70030E-03
 4.79307E-03  4.85684E-03  4.88418E-03  4.86537E-03  4.79144E-03  4.66233E-03
 4.49929E-03  4.35251E-03  4.29130E-03  4.29130E-03  1.47053E-02  1.47053E-02
 1.47432E-02  1.48015E-02  1.48326E-02  1.48468E-02  1.48496E-02  1.48458E-02
 1.48406E-02  1.48404E-02  1.48532E-02  1.48887E-02  1.49585E-02  1.50769E-02
 1.52604E-02  1.55279E-02  1.58977E-02  1.63828E-02  1.69746E-02  1.76102E-02
 1.81329E-02  1.83629E-02  1.82927E-02  1.80803E-02  1.78537E-02  1.76539E-02
 1.74778E-02  1.73093E-02  1.71323E-02  1.69331E-02  1.67004E-02  1.64245E-02
 1.60957E-02  1.57033E-02  1.52342E-02  1.46706E-02  1.39865E-02  1.31407E-02
 1.20622E-02  1.06118E-02  8.41383E-03  7.83325E-03  9.16524E-03  1.01258E-02
 1.08720E-02  1.15352E-02  1.21648E-02  1.27619E-02  1.33131E-02  1.38074E-02
 1.42388E-02  1.46025E-02  1.48903E-02  1.50876E-02  1.51711E-02  1.51105E-02
 1.48780E-02  1.44735E-02  1.39635E-02  1.35049E-02  1.33138E-02  1.33138E-02
 2.59940E-02  2.59940E-02  2.60120E-02  2.60429E-02  2.60612E-02  2.60647E-02
 2.60560E-02  2.60401E-02  2.60245E-02  2.60191E-02  2.60367E-02  2.60930E-02
 2.62078E-02  2.64050E-02  2.67128E-02  2.71629E-02  2.77872E-02  2.86070E-02
 2.96079E-02  3.06832E-02  3.15725E-02  3.19788E-02  3.18883E-02  3.15570E-02
 3.11942E-02  3.08682E-02  3.05740E-02  3.02858E-02  2.99769E-02  2.96250E-02
 2.92115E-02  2.87199E-02  2.81341E-02  2.74361E-02  2.66035E-02  2.56056E-02
 2.43977E-02  2.29095E-02  2.10208E-02  1.85062E-02  1.48184E-02  1.38630E-02
 1.60895E-02  1.77370E-02  1.90409E-02  2.02104E-02  2.13241E-02  2.23809E-02
 2.33560E-02  2.42294E-02  2.49904E-02  2.56306E-02  2.61359E-02  2.64801E-02
 2.66224E-02  2.65095E-02  2.60926E-02  2.53725E-02  2.44678E-02  2.36559E-02
 2.33181E-02  2.33181E-02  3.87615E-02  3.87615E-02  3.87617E-02  3.87576E-02
 3.87434E-02  3.87182E-02  3.86841E-02  3.86464E-02  3.86141E-02  3.85996E-02
 3.86196E-02  3.86957E-02  3.88546E-02  3.91297E-02  3.95605E-02  4.01922E-02
 4.10699E-02  4.22249E-02  4.36377E-02  4.51598E-02  4.64308E-02  4.70419E-02
 4.69683E-02  4.65512E-02  4.60733E-02  4.56282E-02  4.52106E-02  4.47865E-02
 4.43209E-02  4.37838E-02  4.31504E-02  4.23983E-02  4.15055E-02  4.04469E-02
 3.91908E-02  3.76945E-02  3.58955E-02  3.36965E-02  3.09366E-02  2.73343E-02
 2.22788E-02  2.09503E-02  2.39336E-02  2.62660E-02  2.81793E-02  2.99255E-02
 3.15998E-02  3.31921E-02  3.46614E-02  3.59756E-02  3.71180E-02  3.80761E-02
 3.88287E-02  3.93373E-02  3.95405E-02  3.93590E-02  3.87216E-02  3.76321E-02
 3.62706E-02  3.50529E-02  3.45471E-02  3.45471E-02  5.33238E-02  5.33238E-02
 5.33127E-02  5.32814E-02  5.32340E-02  5.31749E-02  5.31096E-02  5.30457E-02
 5.29944E-02  5.29706E-02  5.29943E-02  5.30915E-02  5.32953E-02  5.36470E-02
 5.41968E-02  5.50022E-02  5.61224E-02  5.76000E-02  5.94138E-02  6.13798E-02
 6.30469E-02  6.39011E-02  6.38977E-02  6.34426E-02  6.28777E-02  6.23196E-02
 6.17654E-02  6.11771E-02  6.05146E-02  5.97430E-02  5.88332E-02  5.77583E-02
 5.64913E-02  5.50009E-02  5.32479E-02  5.11788E-02  4.87169E-02  4.57469E-02
 4.20896E-02  3.74685E-02  3.13737E-02  2.96607E-02  3.30442E-02  3.59757E-02
 3.85323E-02  4.09368E-02  4.32714E-02  4.55031E-02  4.75658E-02  4.94097E-02
 5.10082E-02  5.23432E-02  5.33855E-02  5.40815E-02  5.43465E-02  5.40718E-02
 5.31627E-02  5.16315E-02  4.97328E-02  4.80420E-02  4.73410E-02  4.73410E-02
 7.01494E-02  7.01494E-02  7.01324E-02  7.00851E-02  7.00153E-02  6.99314E-02
 6.98427E-02  6.97604E-02  6.96981E-02  6.96737E-02  6.97099E-02  6.98361E-02
 7.00898E-02  7.05185E-02  7.11804E-02  7.21442E-02  7.34827E-02  7.52516E-02
 7.74346E-02  7.98237E-02  8.18941E-02  8.30389E-02  8.31788E-02  8.27508E-02
 8.21345E-02  8.14670E-02  8.07535E-02  7.99589E-02  7.90434E-02  7.79718E-02
 7.67133E-02  7.52391E-02  7.35189E-02  7.15174E-02  6.91902E-02  6.64781E-02
 6.32992E-02  5.95392E-02  5.50429E-02  4.96266E-02  4.30351E-02  4.08830E-02
 4.40365E-02  4.73156E-02  5.04860E-02  5.36212E-02  5.67339E-02  5.97417E-02
 6.25367E-02  6.50387E-02  6.72038E-02  6.90033E-02  7.03968E-02  7.13125E-02
 7.16381E-02  7.12328E-02  6.99802E-02  6.79105E-02  6.53713E-02  6.31230E-02
 6.21929E-02  6.21929E-02  8.99178E-02  8.99178E-02  8.98994E-02  8.98484E-02
 8.97738E-02  8.96860E-02  8.95967E-02  8.95195E-02  8.94704E-02  8.94692E-02
 8.95404E-02  8.97152E-02  9.00331E-02  9.05445E-02  9.13123E-02  9.24127E-02
 9.39294E-02  9.59330E-02  9.84195E-02  1.01176E-01  1.03635E-01  1.05119E-01
 1.05496E-01  1.05182E-01  1.04562E-01  1.03789E-01  1.02886E-01  1.01833E-01
 1.00598E-01  9.91515E-02  9.74666E-02  9.55156E-02  9.32689E-02  9.06914E-02
 8.77397E-02  8.43589E-02  8.04799E-02  7.60213E-02  7.09033E-02  6.50933E-02
 5.85734E-02  5.58401E-02  5.79656E-02  6.10990E-02  6.47005E-02  6.85726E-02
 7.25712E-02  7.65168E-02  8.02284E-02  8.35719E-02  8.64676E-02  8.88640E-02
 9.07015E-02  9.18838E-02  9.22663E-02  9.16752E-02  8.99798E-02  8.72456E-02
 8.39379E-02  8.10312E-02  7.98319E-02  7.98319E-02  1.13574E-01  1.13574E-01
 1.13560E-01  1.13520E-01  1.13465E-01  1.13404E-01  1.13352E-01  1.13320E-01
 1.13327E-01  1.13392E-01  1.13540E-01  1.13800E-01  1.14211E-01  1.14822E-01
 1.15695E-01  1.16907E-01  1.18546E-01  1.20694E-01  1.23366E-01  1.26369E-01
 1.29146E-01  1.30998E-01  1.31720E-01  1.31634E-01  1.31079E-01  1.30218E-01
 1.29104E-01  1.27744E-01  1.26129E-01  1.24245E-01  1.22074E-01  1.19597E-01
 1.16791E-01  1.13628E-01  1.10079E-01  1.06106E-01  1.01677E-01  9.67688E-02
 9.13911E-02  8.56184E-02  7.94967E-02  7.60329E-02  7.64769E-02  7.87687E-02
 8.23562E-02  8.67835E-02  9.16780E-02  9.66972E-02  1.01536E-01  1.05962E-01
 1.09820E-01  1.13010E-01  1.15430E-01  1.16950E-01  1.17384E-01  1.16533E-01
 1.14267E-01  1.10718E-01  1.06500E-01  1.02830E-01  1.01321E-01  1.01321E-01
 1.42197E-01  1.42197E-01  1.42193E-01  1.42183E-01  1.42177E-01  1.42185E-01
 1.42217E-01  1.42286E-01  1.42407E-01  1.42597E-01  1.42879E-01  1.43277E-01
 1.43824E-01  1.44564E-01  1.45548E-01  1.46846E-01  1.48537E-01  1.50702E-01
 1.53369E-01  1.56393E-01  1.59305E-01  1.61480E-01  1.62638E-01  1.62920E-01
 1.62541E-01  1.61652E-01  1.60344E-01  1.58669E-01  1.56656E-01  1.54317E-01
 1.51657E-01  1.48672E-01  1.45356E-01  1.41699E-01  1.37694E-01  1.33335E-01
 1.28632E-01  1.23611E-01  1.18326E-01  1.12861E-01  1.07200E-01  1.03074E-01
 1.01714E-01  1.02560E-01  1.05426E-01  1.09876E-01  1.15385E-01  1.21427E-01
 1.27518E-01  1.33258E-01  1.38350E-01  1.42581E-01  1.45770E-01  1.47722E-01
 1.48209E-01  1.47016E-01  1.44052E-01  1.39557E-01  1.34330E-01  1.29836E-01
 1.27997E-01  1.27997E-01  1.76019E-01  1.76019E-01  1.76031E-01  1.76070E-01
 1.76141E-01  1.76253E-01  1.76413E-01  1.76630E-01  1.76916E-01  1.77284E-01
 1.77749E-01  1.78331E-01  1.79052E-01  1.79942E-01  1.81038E-01  1.82387E-01
 1.84042E-01  1.86061E-01  1.88467E-01  1.91176E-01  1.93899E-01  1.96216E-01
 1.97818E-01  1.98585E-01  1.98524E-01  1.97732E-01  1.96329E-01  1.94419E-01
 1.92079E-01  1.89363E-01  1.86307E-01  1.82937E-01  1.79268E-01  1.75317E-01
 1.71101E-01  1.66645E-01  1.61981E-01  1.57153E-01  1.52213E-01  1.47212E-01
 1.42087E-01  1.37757E-01  1.35192E-01  1.34555E-01  1.36083E-01  1.39704E-01
 1.45057E-01  1.51595E-01  1.58688E-01  1.65722E-01  1.72168E-01  1.77609E-01
 1.81710E-01  1.84174E-01  1.84722E-01  1.83152E-01  1.79460E-01  1.74036E-01
 1.67873E-01  1.62653E-01  1.60532E-01  1.60532E-01  2.12465E-01  2.12465E-01
 2.12494E-01  2.12584E-01  2.12736E-01  2.12956E-01  2.13247E-01  2.13616E-01
 2.14070E-01  2.14615E-01  2.15262E-01  2.16020E-01  2.16902E-01  2.17922E-01
 2.19094E-01  2.20435E-01  2.21961E-01  2.23683E-01  2.25596E-01  2.27672E-01
 2.29855E-01  2.32034E-01  2.33935E-01  2.35173E-01  2.35517E-01  2.34965E-01
 2.33638E-01  2.31676E-01  2.29201E-01  2.26310E-01  2.23077E-01  2.19560E-01
 2.15804E-01  2.11851E-01  2.07737E-01  2.03504E-01  1.99190E-01  1.94835E-01
 1.90475E-01  1.86140E-01  1.81752E-01  1.77817E-01  1.74981E-01  1.73481E-01
 1.73688E-01  1.75886E-01  1.80123E-01  1.86140E-01  1.93385E-01  2.01117E-01
 2.08556E-01  2.15009E-01  2.19916E-01  2.22836E-01  2.23445E-01  2.21582E-01
 2.17358E-01  2.11318E-01  2.04604E-01  1.99014E-01  1.96763E-01  1.96763E-01
 2.46905E-01  2.46905E-01  2.46945E-01  2.47066E-01  2.47269E-01  2.47556E-01
 2.47930E-01  2.48394E-01  2.48953E-01  2.49609E-01  2.50367E-01  2.51230E-01
 2.52200E-01  2.53277E-01  2.54454E-01  2.55720E-01  2.57048E-01  2.58400E-01
 2.59738E-01  2.61076E-01  2.62567E-01  2.64393E-01  2.66351E-01  2.67879E-01
 2.68560E-01  2.68305E-01  2.67204E-01  2.65404E-01  2.63045E-01  2.60252E-01
 2.57126E-01  2.53752E-01  2.50199E-01  2.46528E-01  2.42788E-01  2.39025E-01
 2.35276E-01  2.31574E-01  2.27943E-01  2.24405E-01  2.20884E-01  2.17723E-01
 2.15313E-01  2.13735E-01  2.13269E-01  2.14265E-01  2.17040E-01  2.21714E-01
 2.28054E-01  2.35441E-01  2.42995E-01  2.49794E-01  2.55054E-01  2.58187E-01
 2.58825E-01  2.56856E-01  2.52488E-01  2.46364E-01  2.39679E-01  2.34206E-01
 2.32027E-01  2.32027E-01  2.76536E-01  2.76536E-01  2.76577E-01  2.76702E-01
 2.76913E-01  2.77212E-01  2.77603E-01  2.78087E-01  2.78666E-01  2.79343E-01
 2.80119E-01  2.80993E-01  2.81960E-01  2.83010E-01  2.84123E-01  2.85261E-01
 2.86369E-01  2.87371E-01  2.88207E-01  2.88923E-01  2.89806E-01  2.91226E-01
 2.93045E-01  2.94629E-01  2.95480E-01  2.95460E-01  2.94634E-01  2.93131E-01
 2.91089E-01  2.88631E-01  2.85864E-01  2.82880E-01  2.79758E-01  2.76565E-01
 2.73356E-01  2.70172E-01  2.67049E-01  2.64007E-01  2.61064E-01  2.58226E-01
 2.55413E-01  2.52969E-01  2.51202E-01  2.50036E-01  2.49607E-01  2.50140E-01
 2.51930E-01  2.55243E-01  2.60143E-01  2.66308E-01  2.73017E-01  2.79331E-01
 2.84347E-01  2.87369E-01  2.87984E-01  2.86099E-01  2.81963E-01  2.76233E-01
 2.70062E-01  2.65082E-01  2.63120E-01  2.63120E-01  3.01348E-01  3.01348E-01
 3.01385E-01  3.01498E-01  3.01690E-01  3.01963E-01  3.02322E-01  3.02767E-01
 3.03303E-01  3.03932E-01  3.04653E-01  3.05467E-01  3.06363E-01  3.07328E-01
 3.08329E-01  3.09316E-01  3.10215E-01  3.10933E-01  3.11401E-01  3.11686E-01
 3.12136E-01  3.13198E-01  3.14781E-01  3.16253E-01  3.17116E-01  3.17225E-01
 3.16632E-01  3.15456E-01  3.13817E-01  3.11823E-01  3.09564E-01  3.07116E-01
 3.04546E-01  3.01910E-01  2.99255E-01  2.96618E-01  2.94024E-01  2.91492E-01
 2.89030E-01  2.86642E-01  2.84266E-01  2.82345E-01  2.81198E-01  2.80644E-01
 2.80705E-01  2.81436E-01  2.82953E-01  2.85423E-01  2.88980E-01  2.93569E-01
 2.98805E-01  3.03983E-01  3.08267E-01  3.10913E-01  3.11457E-01  3.09781E-01
 3.06117E-01  3.01072E-01  2.95683E-01  2.91379E-01  2.89697E-01  2.89697E-01
 3.22323E-01  3.22323E-01  3.22354E-01  3.22448E-01  3.22606E-01  3.22832E-01
 3.23128E-01  3.23499E-01  3.23951E-01  3.24488E-01  3.25112E-01  3.25823E-01
 3.26611E-01  3.27457E-01  3.28324E-01  3.29156E-01  3.29872E-01  3.30376E-01
 3.30604E-01  3.30628E-01  3.30803E-01  3.31579E-01  3.32891E-01  3.34161E-01
 3.34934E-01  3.35083E-01  3.34657E-01  3.33766E-01  3.32520E-01  3.31009E-01
 3.29300E-01  3.27440E-01  3.25466E-01  3.23409E-01  3.21294E-01  3.19145E-01
 3.16982E-01  3.14820E-01  3.12668E-01  3.10524E-01  3.08310E-01  3.06635E-01
 3.05967E-01  3.06064E-01  3.06827E-01  3.08122E-01  3.09838E-01  3.11937E-01
 3.14475E-01  3.17546E-01  3.21119E-01  3.24863E-01  3.28151E-01  3.30271E-01
 3.30712E-01  3.29307E-01  3.26233E-01  3.22006E-01  3.17508E-01  3.13932E-01
 3.12538E-01  3.12538E-01  3.40442E-01  3.40442E-01  3.40463E-01  3.40527E-01
 3.40633E-01  3.40788E-01  3.40997E-01  3.41269E-01  3.41613E-01  3.42036E-01
 3.42543E-01  3.43131E-01  3.43793E-01  3.44505E-01  3.45230E-01  3.45910E-01
 3.46468E-01  3.46817E-01  3.46901E-01  3.46792E-01  3.46810E-01  3.47361E-01
 3.48399E-01  3.49427E-01  3.50060E-01  3.50194E-01  3.49879E-01  3.49216E-01
 3.48306E-01  3.47227E-01  3.46029E-01  3.44736E-01  3.43349E-01  3.41865E-01
 3.40276E-01  3.38582E-01  3.36784E-01  3.34889E-01  3.32907E-01  3.30840E-01
 3.28647E-01  3.27099E-01  3.26807E-01  3.27509E-01  3.28994E-01  3.30918E-01
 3.32936E-01  3.34825E-01  3.36569E-01  3.38362E-01  3.40444E-01  3.42814E-01
 3.45086E-01  3.46642E-01  3.46965E-01  3.45847E-01  3.43400E-01  3.40033E-01
 3.36446E-01  3.33587E-01  3.32469E-01  3.32469E-01  3.56407E-01  3.56407E-01
 3.56412E-01  3.56429E-01  3.56465E-01  3.56530E-01  3.56638E-01  3.56801E-01
 3.57030E-01  3.57335E-01  3.57719E-01  3.58180E-01  3.58708E-01  3.59279E-01
 3.59857E-01  3.60390E-01  3.60810E-01  3.61047E-01  3.61057E-01  3.60901E-01
 3.60843E-01  3.61217E-01  3.61991E-01  3.62766E-01  3.63239E-01  3.63335E-01
 3.63097E-01  3.62612E-01  3.61972E-01  3.61243E-01  3.60468E-01  3.59653E-01
 3.58783E-01  3.57827E-01  3.56747E-01  3.55509E-01  3.54090E-01  3.52477E-01
 3.50670E-01  3.48675E-01  3.46435E-01  3.44865E-01  3.44819E-01  3.46060E-01
 3.48175E-01  3.50566E-01  3.52698E-01  3.54271E-01  3.55314E-01  3.56136E-01
 3.57109E-01  3.58402E-01  3.59808E-01  3.60846E-01  3.61053E-01  3.60214E-01
 3.58387E-01  3.55866E-01  3.53168E-01  3.50991E-01  3.50131E-01  3.50131E-01
 3.70645E-01  3.70645E-01  3.70629E-01  3.70589E-01  3.70548E-01  3.70525E-01
 3.70539E-01  3.70605E-01  3.70733E-01  3.70931E-01  3.71199E-01  3.71533E-01
 3.71923E-01  3.72346E-01  3.72772E-01  3.73158E-01  3.73453E-01  3.73606E-01
 3.73587E-01  3.73442E-01  3.73363E-01  3.73598E-01  3.74123E-01  3.74651E-01
 3.74967E-01  3.75019E-01  3.74843E-01  3.74507E-01  3.74082E-01  3.73626E-01
 3.73169E-01  3.72718E-01  3.72254E-01  3.71739E-01  3.71122E-01  3.70346E-01
 3.69356E-01  3.68101E-01  3.66544E-01  3.64664E-01  3.62425E-01  3.60851E-01
 3.61026E-01  3.62701E-01  3.65171E-01  3.67622E-01  3.69465E-01  3.70517E-01
 3.70961E-01  3.71162E-01  3.71469E-01  3.72055E-01  3.72818E-01  3.73427E-01
 3.73535E-01  3.72957E-01  3.71714E-01  3.69997E-01  3.68143E-01  3.66613E-01
 3.65995E-01  3.65995E-01  3.83386E-01  3.83386E-01  3.83349E-01  3.83266E-01
 3.83175E-01  3.83102E-01  3.83063E-01  3.83068E-01  3.83124E-01  3.83231E-01
 3.83391E-01  3.83598E-01  3.83842E-01  3.84108E-01  3.84372E-01  3.84609E-01
 3.84785E-01  3.84872E-01  3.84852E-01  3.84752E-01  3.84689E-01  3.84813E-01
 3.85111E-01  3.85409E-01  3.85581E-01  3.85599E-01  3.85485E-01  3.85283E-01
 3.85040E-01  3.84792E-01  3.84563E-01  3.84357E-01  3.84160E-01  3.83946E-01
 3.83675E-01  3.83298E-01  3.82757E-01  3.81993E-01  3.80940E-01  3.79509E-01
 3.77552E-01  3.76016E-01  3.76234E-01  3.78011E-01  3.80316E-01  3.82260E-01
 3.83436E-01  3.83914E-01  3.83978E-01  3.83913E-01  3.83930E-01  3.84129E-01
 3.84463E-01  3.84751E-01  3.84787E-01  3.84451E-01  3.83745E-01  3.82769E-01
 3.81702E-01  3.80792E-01  3.80411E-01  3.80411E-01  3.94700E-01  3.94700E-01
 3.94678E-01  3.94629E-01  3.94578E-01  3.94536E-01  3.94511E-01  3.94504E-01
 3.94517E-01  3.94551E-01  3.94605E-01  3.94676E-01  3.94760E-01  3.94852E-01
 3.94942E-01  3.95022E-01  3.95082E-01  3.95110E-01  3.95102E-01  3.95067E-01
 3.95043E-01  3.95081E-01  3.95175E-01  3.95270E-01  3.95322E-01  3.95324E-01
 3.95284E-01  3.95216E-01  3.95136E-01  3.95058E-01  3.94990E-01  3.94934E-01
 3.94886E-01  3.94836E-01  3.94771E-01  3.94675E-01  3.94529E-01  3.94310E-01
 3.93985E-01  3.93479E-01  3.92605E-01  3.91780E-01  3.91820E-01  3.92666E-01
 3.93700E-01  3.94476E-01  3.94866E-01  3.94975E-01  3.94950E-01  3.94893E-01
 3.94869E-01  3.94905E-01  3.94990E-01  3.95067E-01  3.95072E-01  3.94963E-01
 3.94737E-01  3.94425E-01  3.94081E-01  3.93779E-01  3.93648E-01  3.93648E-01
 4.07271E-01  4.07271E-01  4.07296E-01  4.07352E-01  4.07411E-01  4.07457E-01
 4.07484E-01  4.07486E-01  4.07460E-01  4.07404E-01  4.07321E-01  4.07210E-01
 4.07077E-01  4.06928E-01  4.06772E-01  4.06620E-01  4.06483E-01  4.06374E-01
 4.06294E-01  4.06235E-01  4.06168E-01  4.06062E-01  4.05928E-01  4.05809E-01
 4.05738E-01  4.05718E-01  4.05741E-01  4.05789E-01  4.05846E-01  4.05900E-01
 4.05944E-01  4.05978E-01  4.06008E-01  4.06044E-01  4.06102E-01  4.06200E-01
 4.06372E-01  4.06672E-01  4.07179E-01  4.07986E-01  4.09218E-01  4.10544E-01
 4.10968E-01  4.10151E-01  4.08819E-01  4.07721E-01  4.07106E-01  4.06859E-01
 4.06796E-01  4.06786E-01  4.06761E-01  4.06697E-01  4.06611E-01  4.06552E-01
 4.06578E-01  4.06729E-01  4.07015E-01  4.07413E-01  4.07875E-01  4.08315E-01
 4.08516E-01  4.08516E-01  4.23097E-01  4.23097E-01  4.23130E-01  4.23208E-01
 4.23288E-01  4.23344E-01  4.23355E-01  4.23308E-01  4.23194E-01  4.23007E-01
 4.22745E-01  4.22411E-01  4.22012E-01  4.21564E-01  4.21090E-01  4.20618E-01
 4.20185E-01  4.19821E-01  4.19542E-01  4.19327E-01  4.19096E-01  4.18770E-01
 4.18381E-01  4.18053E-01  4.17868E-01  4.17837E-01  4.17927E-01  4.18091E-01
 4.18287E-01  4.18484E-01  4.18673E-01  4.18860E-01  4.19072E-01  4.19345E-01
 4.19725E-01  4.20266E-01  4.21030E-01  4.22094E-01  4.23553E-01  4.25503E-01
 4.28101E-01  4.30431E-01  4.30798E-01  4.28912E-01  4.26028E-01  4.23554E-01
 4.22045E-01  4.21348E-01  4.21113E-01  4.21044E-01  4.20959E-01  4.20790E-01
 4.20578E-01  4.20451E-01  4.20567E-01  4.21043E-01  4.21905E-01  4.23087E-01
 4.24429E-01  4.25649E-01  4.26184E-01  4.26184E-01  4.41447E-01  4.41447E-01
 4.41448E-01  4.41443E-01  4.41419E-01  4.41356E-01  4.41238E-01  4.41049E-01
 4.40776E-01  4.40407E-01  4.39938E-01  4.39366E-01  4.38697E-01  4.37946E-01
 4.37140E-01  4.36320E-01  4.35536E-01  4.34843E-01  4.34277E-01  4.33816E-01
 4.33356E-01  4.32790E-01  4.32178E-01  4.31703E-01  4.31477E-01  4.31504E-01
 4.31727E-01  4.32075E-01  4.32492E-01  4.32946E-01  4.33432E-01  4.33973E-01
 4.34604E-01  4.35369E-01  4.36313E-01  4.37474E-01  4.38879E-01  4.40544E-01
 4.42468E-01  4.44644E-01  4.47114E-01  4.48722E-01  4.48324E-01  4.46206E-01
 4.43247E-01  4.40551E-01  4.38669E-01  4.37611E-01  4.37121E-01  4.36900E-01
 4.36720E-01  4.36482E-01  4.36229E-01  4.36136E-01  4.36426E-01  4.37272E-01
 4.38715E-01  4.40635E-01  4.42742E-01  4.44554E-01  4.45312E-01  4.45312E-01
 4.62307E-01  4.62307E-01  4.62276E-01  4.62183E-01  4.62028E-01  4.61804E-01
 4.61505E-01  4.61120E-01  4.60639E-01  4.60050E-01  4.59345E-01  4.58518E-01
 4.57569E-01  4.56508E-01  4.55357E-01  4.54156E-01  4.52966E-01  4.51860E-01
 4.50896E-01  4.50077E-01  4.49304E-01  4.48474E-01  4.47680E-01  4.47143E-01
 4.46982E-01  4.47176E-01  4.47645E-01  4.48299E-01  4.49075E-01  4.49938E-01
 4.50884E-01  4.51923E-01  4.53074E-01  4.54348E-01  4.55751E-01  4.57276E-01
 4.58908E-01  4.60624E-01  4.62397E-01  4.64197E-01  4.66036E-01  4.66951E-01
 4.66226E-01  4.64306E-01  4.61769E-01  4.59322E-01  4.57390E-01  4.56084E-01
 4.55307E-01  4.54859E-01  4.54544E-01  4.54259E-01  4.54046E-01  4.54089E-01
 4.54642E-01  4.55901E-01  4.57906E-01  4.60475E-01  4.63197E-01  4.65433E-01
 4.66335E-01  4.66335E-01  4.85739E-01  4.85739E-01  4.85687E-01  4.85532E-01
 4.85279E-01  4.84926E-01  4.84472E-01  4.83910E-01  4.83233E-01  4.82431E-01
 4.81496E-01  4.80419E-01  4.79193E-01  4.77821E-01  4.76316E-01  4.74711E-01
 4.73062E-01  4.71451E-01  4.69968E-01  4.68656E-01  4.67465E-01  4.66339E-01
 4.65418E-01  4.64938E-01  4.64986E-01  4.65499E-01  4.66361E-01  4.67460E-01
 4.68716E-01  4.70078E-01  4.71521E-01  4.73025E-01  4.74576E-01  4.76155E-01
 4.77742E-01  4.79313E-01  4.80845E-01  4.82311E-01  4.83688E-01  4.84952E-01
 4.86097E-01  4.86530E-01  4.85837E-01  4.84337E-01  4.82388E-01  4.80394E-01
 4.78630E-01  4.77238E-01  4.76241E-01  4.75568E-01  4.75114E-01  4.74813E-01
 4.74713E-01  4.74990E-01  4.75884E-01  4.77582E-01  4.80096E-01  4.83188E-01
 4.86355E-01  4.88862E-01  4.89846E-01  4.89846E-01  5.12059E-01  5.12059E-01
 5.12004E-01  5.11835E-01  5.11550E-01  5.11144E-01  5.10613E-01  5.09950E-01
 5.09147E-01  5.08193E-01  5.07077E-01  5.05788E-01  5.04315E-01  5.02652E-01
 5.00802E-01  4.98782E-01  4.96636E-01  4.94445E-01  4.92320E-01  4.90367E-01
 4.88636E-01  4.87182E-01  4.86209E-01  4.85932E-01  4.86359E-01  4.87348E-01
 4.88725E-01  4.90343E-01  4.92095E-01  4.93909E-01  4.95735E-01  4.97534E-01
 4.99276E-01  5.00936E-01  5.02492E-01  5.03925E-01  5.05218E-01  5.06355E-01
 5.07323E-01  5.08108E-01  5.08705E-01  5.08846E-01  5.08332E-01  5.07308E-01
 5.05963E-01  5.04491E-01  5.03047E-01  5.01752E-01  5.00692E-01  4.99902E-01
 4.99379E-01  4.99129E-01  4.99221E-01  4.99810E-01  5.01095E-01  5.03217E-01
 5.06147E-01  5.09602E-01  5.13029E-01  5.15661E-01  5.16673E-01  5.16673E-01
 5.42511E-01  5.42511E-01  5.42458E-01  5.42293E-01  5.42009E-01  5.41593E-01
 5.41036E-01  5.40325E-01  5.39448E-01  5.38392E-01  5.37143E-01  5.35684E-01
 5.34001E-01  5.32080E-01  5.29909E-01  5.27489E-01  5.24844E-01  5.22035E-01
 5.19182E-01  5.16461E-01  5.14073E-01  5.12260E-01  5.11316E-01  5.11384E-01
 5.12323E-01  5.13869E-01  5.15777E-01  5.17863E-01  5.20003E-01  5.22116E-01
 5.24147E-01  5.26059E-01  5.27827E-01  5.29431E-01  5.30860E-01  5.32104E-01
 5.33159E-01  5.34019E-01  5.34682E-01  5.35146E-01  5.35412E-01  5.35408E-01
 5.35081E-01  5.34484E-01  5.33680E-01  5.32735E-01  5.31715E-01  5.30706E-01
 5.29804E-01  5.29102E-01  5.28676E-01  5.28601E-01  5.28974E-01  5.29929E-01
 5.31606E-01  5.34085E-01  5.37287E-01  5.40907E-01  5.44391E-01  5.47001E-01
 5.47988E-01  5.47988E-01  5.79031E-01  5.79031E-01  5.78977E-01  5.78810E-01
 5.78512E-01  5.78070E-01  5.77470E-01  5.76698E-01  5.75740E-01  5.74581E-01
 5.73205E-01  5.71593E-01  5.69726E-01  5.67581E-01  5.65137E-01  5.62376E-01
 5.59293E-01  5.55919E-01  5.52356E-01  5.48834E-01  5.45732E-01  5.43541E-01
 5.42666E-01  5.43122E-01  5.44562E-01  5.46585E-01  5.48884E-01  5.51265E-01
 5.53606E-01  5.55837E-01  5.57915E-01  5.59813E-01  5.61519E-01  5.63025E-01
 5.64328E-01  5.65428E-01  5.66329E-01  5.67034E-01  5.67547E-01  5.67875E-01
 5.68025E-01  5.67997E-01  5.67836E-01  5.67586E-01  5.67245E-01  5.66812E-01
 5.66302E-01  5.65759E-01  5.65264E-01  5.64916E-01  5.64827E-01  5.65105E-01
 5.65863E-01  5.67207E-01  5.69221E-01  5.71923E-01  5.75198E-01  5.78747E-01
 5.82061E-01  5.84489E-01  5.85395E-01  5.85395E-01  6.23664E-01  6.23664E-01
 6.23584E-01  6.23341E-01  6.22935E-01  6.22363E-01  6.21621E-01  6.20702E-01
 6.19598E-01  6.18296E-01  6.16782E-01  6.15037E-01  6.13038E-01  6.10756E-01
 6.08158E-01  6.05209E-01  6.01877E-01  5.98153E-01  5.94103E-01  5.89961E-01
 5.86242E-01  5.83682E-01  5.82795E-01  5.83462E-01  5.85150E-01  5.87356E-01
 5.89757E-01  5.92168E-01  5.94487E-01  5.96661E-01  5.98660E-01  6.00470E-01
 6.02086E-01  6.03507E-01  6.04738E-01  6.05782E-01  6.06647E-01  6.07339E-01
 6.07866E-01  6.08237E-01  6.08457E-01  6.08536E-01  6.08570E-01  6.08642E-01
 6.08733E-01  6.08821E-01  6.08899E-01  6.08981E-01  6.09117E-01  6.09383E-01
 6.09874E-01  6.10690E-01  6.11921E-01  6.13641E-01  6.15882E-01  6.18617E-01
 6.21719E-01  6.24923E-01  6.27817E-01  6.29889E-01  6.30652E-01  6.30652E-01
 6.78887E-01  6.78510E-01  6.77720E-01  6.76855E-01  6.75910E-01  6.74876E-01
 6.73747E-01  6.72510E-01  6.71153E-01  6.69661E-01  6.68016E-01  6.66194E-01
 6.64168E-01  6.61905E-01  6.59362E-01  6.56493E-01  6.53243E-01  6.49571E-01
 6.45490E-01  6.41181E-01  6.37171E-01  6.34315E-01  6.33210E-01  6.33689E-01
 6.35153E-01  6.37095E-01  6.39212E-01  6.41341E-01  6.43397E-01  6.45337E-01
 6.47139E-01  6.48793E-01  6.50296E-01  6.51650E-01  6.52857E-01  6.53923E-01
 6.54854E-01  6.55656E-01  6.56335E-01  6.56898E-01  6.57350E-01  6.57678E-01
 6.57998E-01  6.58436E-01  6.58981E-01  6.59616E-01  6.60329E-01  6.61119E-01
 6.62006E-01  6.63027E-01  6.64229E-01  6.65668E-01  6.67386E-01  6.69407E-01
 6.71721E-01  6.74270E-01  6.76939E-01  6.79534E-01  6.81779E-01  6.83340E-01
 6.83905E-01  6.83905E-01  7.37519E-01  7.36756E-01  7.35241E-01  7.33740E-01
 7.32246E-01  7.30747E-01  7.29233E-01  7.27692E-01  7.26110E-01  7.24471E-01
 7.22758E-01  7.20949E-01  7.19019E-01  7.16934E-01  7.14656E-01  7.12133E-01
 7.09308E-01  7.06117E-01  7.02524E-01  6.98614E-01  6.94790E-01  6.91838E-01
 6.90381E-01  6.90323E-01  6.91161E-01  6.92466E-01  6.93986E-01  6.95582E-01
 6.97179E-01  6.98736E-01  7.00233E-01  7.01658E-01  7.03004E-01  7.04271E-01
 7.05458E-01  7.06568E-01  7.07603E-01  7.08567E-01  7.09462E-01  7.10294E-01
 7.11063E-01  7.11719E-01  7.12375E-01  7.13196E-01  7.14178E-01  7.15315E-01
 7.16598E-01  7.18020E-01  7.19579E-01  7.21273E-01  7.23103E-01  7.25065E-01
 7.27144E-01  7.29312E-01  7.31520E-01  7.33699E-01  7.35765E-01  7.37611E-01
 7.39109E-01  7.40107E-01  7.40461E-01  7.40461E-01  7.90278E-01  7.89432E-01
 7.87728E-01  7.86009E-01  7.84283E-01  7.82556E-01  7.80830E-01  7.79104E-01
 7.77376E-01  7.75640E-01  7.73890E-01  7.72115E-01  7.70301E-01  7.68429E-01
 7.66472E-01  7.64395E-01  7.62147E-01  7.59665E-01  7.56876E-01  7.53762E-01
 7.50538E-01  7.47804E-01  7.46137E-01  7.45558E-01  7.45727E-01  7.46340E-01
 7.47204E-01  7.48209E-01  7.49292E-01  7.50416E-01  7.51559E-01  7.52707E-01
 7.53852E-01  7.54988E-01  7.56114E-01  7.57228E-01  7.58327E-01  7.59413E-01
 7.60484E-01  7.61542E-01  7.62584E-01  7.63510E-01  7.64421E-01  7.65519E-01
 7.66804E-01  7.68276E-01  7.69929E-01  7.71756E-01  7.73737E-01  7.75847E-01
 7.78046E-01  7.80284E-01  7.82500E-01  7.84624E-01  7.86584E-01  7.88316E-01
 7.89774E-01  7.90933E-01  7.91784E-01  7.92314E-01  7.92497E-01  7.92497E-01
 8.34601E-01  8.33640E-01  8.31727E-01  8.29831E-01  8.27943E-01  8.26063E-01
 8.24190E-01  8.22328E-01  8.20482E-01  8.18656E-01  8.16857E-01  8.15089E-01
 8.13354E-01  8.11653E-01  8.09984E-01  8.08333E-01  8.06674E-01  8.04950E-01
 8.03070E-01  8.00927E-01  7.98556E-01  7.96353E-01  7.94801E-01  7.94000E-01
 7.93758E-01  7.93883E-01  7.94249E-01  7.94780E-01  7.95429E-01  7.96166E-01
 7.96974E-01  7.97839E-01  7.98755E-01  7.99716E-01  8.00717E-01  8.01757E-01
 8.02831E-01  8.03938E-01  8.05075E-01  8.06240E-01  8.07426E-01  8.08477E-01
 8.09481E-01  8.10679E-01  8.12075E-01  8.13672E-01  8.15468E-01  8.17451E-01
 8.19591E-01  8.21843E-01  8.24140E-01  8.26402E-01  8.28542E-01  8.30471E-01
 8.32115E-01  8.33426E-01  8.34394E-01  8.35054E-01  8.35464E-01  8.35689E-01
 8.35762E-01  8.35762E-01  8.70810E-01  8.69829E-01  8.67846E-01  8.65825E-01
 8.63774E-01  8.61705E-01  8.59633E-01  8.57575E-01  8.55550E-01  8.53579E-01
 8.51683E-01  8.49883E-01  8.48200E-01  8.46653E-01  8.45262E-01  8.44039E-01
 8.42980E-01  8.42034E-01  8.41085E-01  8.39951E-01  8.38529E-01  8.37040E-01
 8.35866E-01  8.35139E-01  8.34770E-01  8.34659E-01  8.34738E-01  8.34962E-01
 8.35303E-01  8.35742E-01  8.36267E-01  8.36871E-01  8.37546E-01  8.38292E-01
 8.39105E-01  8.39985E-01  8.40930E-01  8.41941E-01  8.43014E-01  8.44147E-01
 8.45334E-01  8.46368E-01  8.47320E-01  8.48468E-01  8.49824E-01  8.51395E-01
 8.53176E-01  8.55146E-01  8.57261E-01  8.59459E-01  8.61657E-01  8.63763E-01
 8.65684E-01  8.67334E-01  8.68654E-01  8.69617E-01  8.70240E-01  8.70585E-01
 8.70740E-01  8.70797E-01  8.70811E-01  8.70811E-01  9.02172E-01  9.01019E-01
 8.98676E-01  8.96272E-01  8.93833E-01  8.91386E-01  8.88958E-01  8.86581E-01
 8.84288E-01  8.82115E-01  8.80100E-01  8.78280E-01  8.76689E-01  8.75359E-01
 8.74323E-01  8.73607E-01  8.73206E-01  8.73057E-01  8.73007E-01  8.72811E-01
 8.72272E-01  8.71499E-01  8.70796E-01  8.70300E-01  8.69991E-01  8.69830E-01
 8.69793E-01  8.69861E-01  8.70020E-01  8.70262E-01  8.70578E-01  8.70964E-01
 8.71416E-01  8.71935E-01  8.72520E-01  8.73174E-01  8.73900E-01  8.74701E-01
 8.75582E-01  8.76545E-01  8.77588E-01  8.78483E-01  8.79289E-01  8.80304E-01
 8.81547E-01  8.83020E-01  8.84707E-01  8.86569E-01  8.88545E-01  8.90560E-01
 8.92529E-01  8.94366E-01  8.95988E-01  8.97331E-01  8.98352E-01  8.99045E-01
 8.99440E-01  8.99603E-01  8.99628E-01  8.99604E-01  8.99590E-01  8.99590E-01
 9.27438E-01  9.26087E-01  9.23384E-01  9.20680E-01  9.17984E-01  9.15313E-01
 9.12692E-01  9.10158E-01  9.07753E-01  9.05531E-01  9.03551E-01  9.01871E-01
 9.00546E-01  8.99620E-01  8.99125E-01  8.99066E-01  8.99406E-01  9.00042E-01
 9.00777E-01  9.01333E-01  9.01481E-01  9.01282E-01  9.00995E-01  9.00757E-01
 9.00584E-01  9.00477E-01  9.00438E-01  9.00466E-01  9.00556E-01  9.00702E-01
 9.00900E-01  9.01145E-01  9.01432E-01  9.01760E-01  9.02130E-01  9.02542E-01
 9.03002E-01  9.03516E-01  9.04094E-01  9.04748E-01  9.05487E-01  9.06123E-01
 9.06732E-01  9.07591E-01  9.08710E-01  9.10071E-01  9.11628E-01  9.13320E-01
 9.15074E-01  9.16817E-01  9.18474E-01  9.19977E-01  9.21270E-01  9.22308E-01
 9.23070E-01  9.23559E-01  9.23807E-01  9.23874E-01  9.23841E-01  9.23787E-01
 9.23763E-01  9.23763E-01  9.48121E-01  9.46707E-01  9.43872E-01  9.41034E-01