TITLE = "tiny.tec"
VARIABLES = "X", "Y", "data_001", "data_002"
ZONE  N =        5,  E =        3,  DATAPACKING = POINT,  ZONETYPE = FETRIANGLE
     .000000         .000000         1.00000         .000000    
     1.00000         .000000         .800000         .200000    
     2.00000         .000000         .600000         .400000    
     .000000         1.00000         .900000         .100000    
     1.00000         1.00000         .500000         .500000    
         1         2         4
         5         4         2
         2         3         5
